! TOUCHSTONE file generated by CST MICROWAVE STUDIO
! Date and time: Tue Apr 24 13:57:19 2018
! Project name: Test_Line_20170724.cst
! Header version: 2015
! Port assignment regex: !\s*Touchstone port\s*([0-9]+)\s*=\s*CST MWS port\s*([0-9]+)\s*\(\"(.*)\"\)(\s*mode\s*([0-9]+))?.*
! Touchstone port assignment:
! Touchstone port 1 = CST MWS port 1 ("")
! Touchstone port 2 = CST MWS port 2 ("")
# GHZ S RI R 50
5                    -0.00503556      0.00035585        0.0508101        0.990153          0.05081        0.990152       -0.0050486       0.0001173  
5.01                 -0.00501361     0.000402384        0.0602447        0.989618        0.0602446        0.989617      -0.00502898     0.000163122  
5.02                 -0.00499011     0.000448436        0.0696738        0.988992        0.0696738         0.98899      -0.00500782     0.000208483  
5.03                 -0.00496507      0.00049397        0.0790966        0.988275        0.0790965        0.988274      -0.00498513     0.000253348  
5.04                 -0.00493849     0.000538951        0.0885122        0.987468        0.0885121        0.987467      -0.00496092     0.000297681  
5.05                 -0.00491039     0.000583343        0.0979196        0.986571        0.0979195         0.98657      -0.00493519     0.000341448  
5.06                 -0.00488078     0.000627111         0.107318        0.985583         0.107318        0.985582      -0.00490798     0.000384612  
5.07                 -0.00484966     0.000670219         0.116707        0.984505         0.116706        0.984504      -0.00487927      0.00042714  
5.08                 -0.00481706     0.000712634         0.126084        0.983338         0.126084        0.983337      -0.00484909     0.000468997  
5.09                 -0.00478298      0.00075432         0.135451         0.98208          0.13545        0.982079      -0.00481745     0.000510148  
5.1                  -0.00474744     0.000795243         0.144804        0.980733         0.144804        0.980732      -0.00478436      0.00055056  
5.11                 -0.00471045     0.000835369         0.154145        0.979296         0.154144        0.979295      -0.00474984     0.000590198  
5.12                 -0.00467204     0.000874664         0.163471         0.97777         0.163471        0.977769       -0.0047139     0.000629029  
5.13                 -0.00463221     0.000913096         0.172782        0.976155         0.172782        0.976153      -0.00467657      0.00066702  
5.14                 -0.00459099      0.00095063         0.182077         0.97445         0.182077        0.974449      -0.00463785     0.000704138  
5.15                 -0.00454839     0.000987234         0.191355        0.972656         0.191355        0.972655      -0.00459776      0.00074035  
5.16                 -0.00450443      0.00102288         0.200616        0.970774         0.200616        0.970773      -0.00455633     0.000775625  
5.17                 -0.00445913      0.00105752         0.209858        0.968803         0.209858        0.968802      -0.00451357      0.00080993  
5.18                 -0.00441251      0.00109115         0.219081        0.966744         0.219081        0.966742       -0.0044695     0.000843234  
5.19                 -0.00436458      0.00112371         0.228284        0.964596         0.228284        0.964595      -0.00442414     0.000875506  
5.2                  -0.00431538      0.00115519         0.237466        0.962361         0.237465        0.962359      -0.00437751     0.000906715  
5.21                 -0.00426492      0.00118554         0.246625        0.960037         0.246625        0.960036      -0.00432963     0.000936831  
5.22                 -0.00421323      0.00121475         0.255762        0.957627         0.255762        0.957625      -0.00428054     0.000965825  
5.23                 -0.00416032      0.00124278         0.264876        0.955129         0.264876        0.955127      -0.00423023     0.000993665  
5.24                 -0.00410623      0.00126961         0.273965        0.952544         0.273965        0.952542      -0.00417876      0.00102032  
5.25                 -0.00405097      0.00129519         0.283029        0.949872         0.283028        0.949871      -0.00412612      0.00104577  
5.26                 -0.00399457      0.00131951         0.292066        0.947113         0.292066        0.947112      -0.00407236      0.00106999  
5.27                 -0.00393706      0.00134254         0.301077        0.944269         0.301077        0.944268      -0.00401749      0.00109293  
5.28                 -0.00387846      0.00136425          0.31006        0.941338          0.31006        0.941337      -0.00396155      0.00111458  
5.29                  -0.0038188      0.00138461         0.319015        0.938322         0.319015        0.938321      -0.00390455      0.00113492  
5.3                   -0.0037581      0.00140361          0.32794         0.93522          0.32794        0.935219      -0.00384652      0.00115391  
5.31                  -0.0036964       0.0014212         0.336835        0.932033         0.336835        0.932032       -0.0037875      0.00117152  
5.32                 -0.00363371      0.00143737         0.345699        0.928762         0.345699        0.928761       -0.0037275      0.00118775  
5.33                 -0.00357008      0.00145209         0.354532        0.925406         0.354531        0.925405      -0.00366657      0.00120255  
5.34                 -0.00350553      0.00146533         0.363332        0.921965         0.363331        0.921964      -0.00360472       0.0012159  
5.35                 -0.00344009      0.00147709         0.372098        0.918441         0.372097         0.91844      -0.00354199      0.00122779  
5.36                 -0.00337379      0.00148732          0.38083        0.914834         0.380829        0.914833       -0.0034784      0.00123819  
5.37                 -0.00330665      0.00149601         0.389527        0.911143         0.389527        0.911142      -0.00341399      0.00124708  
5.38                 -0.00323872      0.00150314         0.398188        0.907369         0.398188        0.907368      -0.00334879      0.00125443  
5.39                 -0.00317003      0.00150868         0.406813        0.903513         0.406813        0.903512      -0.00328283      0.00126023  
5.4                  -0.00310059      0.00151262         0.415401        0.899575           0.4154        0.899574      -0.00321613      0.00126445  
5.41                 -0.00303046      0.00151494          0.42395        0.895555          0.42395        0.895554      -0.00314875      0.00126707  
5.42                 -0.00295966      0.00151561          0.43246        0.891454          0.43246        0.891453      -0.00308069      0.00126808  
5.43                 -0.00288822      0.00151462         0.440931        0.887271         0.440931         0.88727      -0.00301201      0.00126746  
5.44                 -0.00281618      0.00151195         0.449362        0.883009         0.449361        0.883007      -0.00294273      0.00126519  
5.45                 -0.00274357      0.00150758         0.457751        0.878666          0.45775        0.878664      -0.00287289      0.00126125  
5.46                 -0.00267043       0.0015015         0.466098        0.874243         0.466097        0.874242      -0.00280252      0.00125562  
5.47                 -0.00259679      0.00149369         0.474402        0.869741         0.474401        0.869739      -0.00273165       0.0012483  
5.48                 -0.00252269      0.00148413         0.482663        0.865159         0.482662        0.865158      -0.00266033      0.00123925  
5.49                 -0.00244817      0.00147281          0.49088          0.8605         0.490879        0.860499      -0.00258858      0.00122848  
5.5                  -0.00237325      0.00145971         0.499051        0.855762         0.499051        0.855761      -0.00251644      0.00121596  
5.51                 -0.00229798      0.00144483         0.507177        0.850947         0.507177        0.850946      -0.00244395      0.00120169  
5.52                 -0.00222239      0.00142815         0.515257        0.846054         0.515256        0.846053      -0.00237114      0.00118565  
5.53                 -0.00214652      0.00140966         0.523289        0.841085         0.523289        0.841084      -0.00229806      0.00116782  
5.54                 -0.00207041      0.00138934         0.531274        0.836039         0.531273        0.836038      -0.00222473      0.00114821  
5.55                 -0.00199409      0.00136719          0.53921        0.830918         0.539209        0.830917       -0.0021512      0.00112679  
5.56                  -0.0019176       0.0013432         0.547096        0.825721         0.547096         0.82572       -0.0020775      0.00110355  
5.57                 -0.00184099      0.00131735         0.554933         0.82045         0.554932        0.820449      -0.00200367       0.0010785  
5.58                 -0.00176428      0.00128965         0.562719        0.815104         0.562718        0.815103      -0.00192975      0.00105162  
5.59                 -0.00168754       0.0012601         0.570453        0.809684         0.570452        0.809683       -0.0018558      0.00102292  
5.6                  -0.00161079      0.00122867         0.578135        0.804191         0.578134         0.80419      -0.00178184     0.000992383  
5.61                 -0.00153407      0.00119537         0.585764        0.798625         0.585763        0.798624       -0.0017079     0.000959994  
5.62                  -0.0014574      0.00116018          0.59334        0.792986         0.593339        0.792985      -0.00163401     0.000925752  
5.63                 -0.00138084       0.0011231         0.600862        0.787276         0.600861        0.787275      -0.00156023     0.000889652  
5.64                 -0.00130442      0.00108412         0.608328        0.781494         0.608327        0.781493      -0.00148659     0.000851689  
5.65                 -0.00122817      0.00104326         0.615739        0.775642         0.615738        0.775641      -0.00141312     0.000811862  
5.66                 -0.00115215      0.00100049         0.623094        0.769719         0.623093        0.769718      -0.00133987     0.000770169  
5.67                 -0.00107638     0.000955822         0.630392        0.763727         0.630391        0.763726      -0.00126687     0.000726608  
5.68                 -0.00100092     0.000909256         0.637632        0.757665         0.637631        0.757664      -0.00119417     0.000681178  
5.69                -0.000925786     0.000860789         0.644814        0.751535         0.644813        0.751534       -0.0011218     0.000633879  
5.7                 -0.000851033     0.000810424         0.651938        0.745337         0.651937        0.745336       -0.0010498     0.000584714  
5.71                -0.000776698     0.000758162         0.659001        0.739071            0.659         0.73907     -0.000978216     0.000533683  
5.72                -0.000702819     0.000704005         0.666005        0.732739         0.666004        0.732738     -0.000907084     0.000480789  
5.73                -0.000629438     0.000647956         0.672948         0.72634         0.672947        0.726339     -0.000836444     0.000426035  
5.74                -0.000556593      0.00059002         0.679829        0.719875         0.679828        0.719874     -0.000766334     0.000369426  
5.75                -0.000484325     0.000530202         0.686649        0.713345         0.686648        0.713344     -0.000696795     0.000310966  
5.76                -0.000412673     0.000468507         0.693406        0.706751         0.693404         0.70675     -0.000627865     0.000250661  
5.77                -0.000341677     0.000404942         0.700099        0.700092         0.700098        0.700091     -0.000559584     0.000188517  
5.78                -0.000271377     0.000339514         0.706729        0.693371         0.706728         0.69337     -0.000491991     0.000124543  
5.79                -0.000201811     0.000272231         0.713294        0.686586         0.713293        0.686585     -0.000425125    5.87445e-005  
5.8                  -0.00013302     0.000203101         0.719794         0.67974         0.719793        0.679739     -0.000359026   -8.86823e-006  
5.81                -6.5043e-005     0.000132134         0.726229        0.672832         0.726228        0.672831     -0.000293732    -7.8286e-005  
5.82                2.08128e-006    5.93416e-005         0.732597        0.665863         0.732596        0.665862     -0.000229282    -0.000149498  
5.83                6.83135e-005   -1.52665e-005         0.738899        0.658834         0.738898        0.658833     -0.000165715    -0.000222495  
5.84                 0.000133615   -9.16781e-005         0.745133        0.651745         0.745132        0.651744      -0.00010307    -0.000297262  
5.85                 0.000197947     -0.00016988           0.7513        0.644597         0.751299        0.644596    -4.13836e-005    -0.000373789  
5.86                  0.00026127     -0.00024986         0.757398        0.637391         0.757397         0.63739     1.93045e-005    -0.000452062  
5.87                 0.000323547    -0.000331603         0.763427        0.630127         0.763426        0.630127     7.89568e-005    -0.000532067  
5.88                  0.00038474    -0.000415094         0.769386        0.622807         0.769385        0.622806      0.000137536    -0.000613788  
5.89                  0.00044481    -0.000500318         0.775275         0.61543         0.775274        0.615429      0.000195003     -0.00069721  
5.9                   0.00050372    -0.000587257         0.781094        0.607997         0.781093        0.607996      0.000251323    -0.000782317  
5.91                 0.000561432    -0.000675896         0.786842         0.60051          0.78684        0.600509      0.000306457    -0.000869091  
5.92                  0.00061791    -0.000766215         0.792518        0.592968         0.792516        0.592967      0.000360369    -0.000957515  
5.93                 0.000673116    -0.000858196         0.798121        0.585372          0.79812        0.585371      0.000413022     -0.00104757  
5.94                 0.000727014     -0.00095182         0.803652        0.577724         0.803651        0.577723      0.000464381     -0.00113924  
5.95                 0.000779569     -0.00104707          0.80911        0.570023         0.809109        0.570022      0.000514409     -0.00123249  
5.96                 0.000830743     -0.00114392         0.814495        0.562271         0.814493         0.56227      0.000563071     -0.00132732  
5.97                 0.000880502     -0.00124234         0.819805        0.554468         0.819803        0.554467      0.000610332      -0.0014237  
5.98                  0.00092881     -0.00134233          0.82504        0.546615         0.825039        0.546614      0.000656158      -0.0015216  
5.99                 0.000975633     -0.00144385           0.8302        0.538712         0.830199        0.538712      0.000700512     -0.00162101  
6                     0.00102094     -0.00154688         0.835285        0.530761         0.835284         0.53076      0.000743363      -0.0017219  
6.01                  0.00106468      -0.0016514         0.840294        0.522762         0.840292        0.522761      0.000784675     -0.00182425  
6.02                  0.00110685     -0.00175738         0.845226        0.514716         0.845225        0.514715      0.000824416     -0.00192802  
6.03                  0.00114739     -0.00186479         0.850081        0.506623          0.85008        0.506622      0.000862553      -0.0020332  
6.04                  0.00118627     -0.00197362         0.854859        0.498484         0.854858        0.498483      0.000899054     -0.00213976  
6.05                  0.00122348     -0.00208382         0.859559          0.4903         0.859558          0.4903      0.000933887     -0.00224767  
6.06                  0.00125896     -0.00219538         0.864181        0.482072          0.86418        0.482072      0.000967019     -0.00235691  
6.07                   0.0012927     -0.00230827         0.868725        0.473801         0.868723          0.4738      0.000998421     -0.00246744  
6.08                  0.00132465     -0.00242245         0.873189        0.465486         0.873187        0.465486       0.00102806     -0.00257924  
6.09                   0.0013548      -0.0025379         0.877574         0.45713         0.877572        0.457129       0.00105591     -0.00269227  
6.1                   0.00138311     -0.00265458         0.881878        0.448732         0.881877        0.448731       0.00108194     -0.00280651  
6.11                  0.00140955     -0.00277247         0.886103        0.440294         0.886102        0.440293       0.00110612     -0.00292193  
6.12                  0.00143409     -0.00289153         0.890247        0.431816         0.890246        0.431815       0.00112842     -0.00303849  
6.13                   0.0014567     -0.00301174          0.89431        0.423299         0.894309        0.423298       0.00114882     -0.00315616  
6.14                  0.00147736     -0.00313305         0.898292        0.414743          0.89829        0.414743       0.00116728     -0.00327492  
6.15                  0.00149604     -0.00325544         0.902192        0.406151          0.90219         0.40615       0.00118379     -0.00339472  
6.16                  0.00151272     -0.00337887          0.90601        0.397521         0.906008        0.397521        0.0011983     -0.00351553  
6.17                  0.00152736     -0.00350331         0.909745        0.388856         0.909744        0.388855       0.00121081     -0.00363733  
6.18                  0.00153994     -0.00362872         0.913398        0.380156         0.913396        0.380155       0.00122128     -0.00376006  
6.19                  0.00155044     -0.00375506         0.916967        0.371421         0.916966         0.37142       0.00122969     -0.00388371  
6.2                   0.00155884     -0.00388231         0.920453        0.362653         0.920452        0.362652       0.00123602     -0.00400822  
6.21                   0.0015651     -0.00401042         0.923856        0.353852         0.923854        0.353851       0.00124024     -0.00413358  
6.22                  0.00156921     -0.00413935         0.927174        0.345019         0.927173        0.345018       0.00124233     -0.00425973  
6.23                  0.00157115     -0.00426908         0.930408        0.336155         0.930407        0.336154       0.00124227     -0.00438664  
6.24                  0.00157089     -0.00439955         0.933558         0.32726         0.933556         0.32726       0.00124003     -0.00451428  
6.25                  0.00156841     -0.00453074         0.936622        0.318337          0.93662        0.318336       0.00123561     -0.00464261  
6.26                   0.0015637     -0.00466261         0.939601        0.309384           0.9396        0.309384       0.00122897     -0.00477158  
6.27                  0.00155673      -0.0047951         0.942495        0.300404         0.942493        0.300403        0.0012201     -0.00490116  
6.28                  0.00154749     -0.00492819         0.945303        0.291396         0.945301        0.291396       0.00120899      -0.0050313  
6.29                  0.00153595     -0.00506184         0.948025        0.282362         0.948023        0.282362        0.0011956     -0.00516198  
6.3                   0.00152211     -0.00519599         0.950661        0.273303         0.950659        0.273302       0.00117994     -0.00529314  
6.31                  0.00150594     -0.00533062          0.95321        0.264219         0.953208        0.264219       0.00116197     -0.00542475  
6.32                  0.00148743     -0.00546569         0.955672        0.255111         0.955671        0.255111       0.00114169     -0.00555676  
6.33                  0.00146656     -0.00560114         0.958048        0.245981         0.958046         0.24598       0.00111908     -0.00568914  
6.34                  0.00144332     -0.00573693         0.960337        0.236828         0.960335        0.236827       0.00109412     -0.00582184  
6.35                   0.0014177     -0.00587303         0.962538        0.227654         0.962536        0.227653       0.00106682     -0.00595482  
6.36                  0.00138968      -0.0060094         0.964651        0.218459         0.964649        0.218459       0.00103714     -0.00608804  
6.37                  0.00135926     -0.00614598         0.966677        0.209245         0.966675        0.209244       0.00100508     -0.00622145  
6.38                  0.00132641     -0.00628274         0.968615        0.200012         0.968613        0.200011      0.000970631     -0.00635501  
6.39                  0.00129114     -0.00641963         0.970464        0.190761         0.970463         0.19076      0.000933782     -0.00648868  
6.4                   0.00125343      -0.0065566         0.972226        0.181493         0.972224        0.181492      0.000894523     -0.00662242  
6.41                  0.00121326     -0.00669363         0.973899        0.172208         0.973897        0.172208      0.000852847     -0.00675618  
6.42                  0.00117065     -0.00683065         0.975483        0.162908         0.975481        0.162908      0.000808745     -0.00688991  
6.43                  0.00112557     -0.00696762         0.976979        0.153594         0.976977        0.153593      0.000762211     -0.00702358  
6.44                  0.00107802     -0.00710451         0.978385        0.144265         0.978383        0.144265      0.000713239     -0.00715713  
6.45                    0.001028     -0.00724126         0.979703        0.134924         0.979701        0.134924      0.000661823     -0.00729053  
6.46                 0.000975506     -0.00737783         0.980931        0.125571          0.98093        0.125571      0.000607961     -0.00742372  
6.47                 0.000920525     -0.00751417         0.982071        0.116207         0.982069        0.116206      0.000551648     -0.00755667  
6.48                  0.00086306     -0.00765024         0.983121        0.106832         0.983119        0.106832      0.000492882     -0.00768932  
6.49                 0.000803109       -0.007786         0.984081       0.0974475         0.984079       0.0974473      0.000431661     -0.00782164  
6.5                  0.000740669      -0.0079214         0.984952       0.0880545          0.98495       0.0880544      0.000367984     -0.00795358  
6.51                  0.00067574     -0.00805638         0.985733       0.0786538         0.985731       0.0786537       0.00030185     -0.00808508  
6.52                 0.000608323     -0.00819091         0.986425       0.0692461         0.986423        0.069246      0.000233262     -0.00821611  
6.53                  0.00053842     -0.00832494         0.987027       0.0598323         0.987025       0.0598322       0.00016222     -0.00834662  
6.54                 0.000466033     -0.00845843         0.987539       0.0504133         0.987537       0.0504132     8.87268e-005     -0.00847657  
6.55                 0.000391165     -0.00859132         0.987961       0.0409899         0.987959       0.0409899     1.27866e-005     -0.00860591  
6.56                 0.000313821     -0.00872358         0.988293       0.0315631         0.988291        0.031563    -6.55969e-005     -0.00873459  
6.57                 0.000234003     -0.00885516         0.988536       0.0221335         0.988534       0.0221335     -0.000146419     -0.00886258  
6.58                  0.00015172     -0.00898601         0.988688       0.0127022         0.988686       0.0127021     -0.000229673     -0.00898981  
6.59                6.69756e-005     -0.00911609          0.98875      0.00326987         0.988748      0.00326987     -0.000315353     -0.00911626  
6.6                -2.02213e-005     -0.00924535         0.988723      -0.0061625         0.988721     -0.00616248      -0.00040345     -0.00924187  
6.61                -0.000109863     -0.00937374         0.988605      -0.0155941         0.988603      -0.0155941     -0.000493958     -0.00936659  
6.62                 -0.00020194     -0.00950122         0.988398      -0.0250241         0.988396       -0.025024     -0.000586866     -0.00949039  
6.63                -0.000296443     -0.00962774           0.9881      -0.0344515         0.988098      -0.0344514     -0.000682164     -0.00961322  
6.64                -0.000393361     -0.00975326         0.987713      -0.0438756         0.987711      -0.0438755     -0.000779841     -0.00973502  
6.65                -0.000492682     -0.00987774         0.987235      -0.0532955         0.987233      -0.0532954     -0.000879885     -0.00985576  
6.66                -0.000594394      -0.0100011         0.986668      -0.0627104         0.986666      -0.0627102     -0.000982284      -0.0099754  
6.67                -0.000698484      -0.0101234         0.986011      -0.0721193         0.986009      -0.0721191      -0.00108702      -0.0100939  
6.68                -0.000804937      -0.0102444         0.985265      -0.0815214         0.985263      -0.0815212      -0.00119409      -0.0102112  
6.69                -0.000913739      -0.0103642         0.984428      -0.0909158         0.984426      -0.0909157      -0.00130347      -0.0103272  
6.7                  -0.00102487      -0.0104828         0.983502       -0.100302           0.9835       -0.100302      -0.00141514       -0.010442  
6.71                 -0.00113832         -0.0106         0.982487       -0.109678         0.982485       -0.109678       -0.0015291      -0.0105554  
6.72                 -0.00125407      -0.0107159         0.981382       -0.119045          0.98138       -0.119045      -0.00164531      -0.0106674  
6.73                  -0.0013721      -0.0108304         0.980188         -0.1284         0.980186         -0.1284      -0.00176376      -0.0107781  
6.74                 -0.00149239      -0.0109434         0.978904       -0.137744         0.978902       -0.137743      -0.00188444      -0.0108872  
6.75                 -0.00161492       -0.011055         0.977532       -0.147074          0.97753       -0.147074      -0.00200732      -0.0109949  
6.76                 -0.00173967       -0.011165          0.97607       -0.156391         0.976068       -0.156391      -0.00213238       -0.011101  
6.77                 -0.00186662      -0.0112734          0.97452       -0.165694         0.974518       -0.165694      -0.00225961      -0.0112056  
6.78                 -0.00199574      -0.0113802         0.972881       -0.174981         0.972879       -0.174981      -0.00238896      -0.0113085  
6.79                 -0.00212702      -0.0114854         0.971153       -0.184252         0.971151       -0.184252      -0.00252044      -0.0114097  
6.8                  -0.00226042      -0.0115888         0.969337       -0.193506         0.969335       -0.193506        -0.002654      -0.0115093  
6.81                 -0.00239593      -0.0116905         0.967433       -0.202743         0.967431       -0.202742      -0.00278962       -0.011607  
6.82                 -0.00253352      -0.0117905         0.965441        -0.21196         0.965439        -0.21196      -0.00292729       -0.011703  
6.83                 -0.00267316      -0.0118886         0.963361       -0.221158         0.963359       -0.221158      -0.00306697      -0.0117972  
6.84                 -0.00281482      -0.0119848         0.961193       -0.230336         0.961191       -0.230335      -0.00320863      -0.0118894  
6.85                 -0.00295848      -0.0120791         0.958938       -0.239492         0.958936       -0.239492      -0.00335225      -0.0119798  
6.86                 -0.00310411      -0.0121715         0.956595       -0.248627         0.956593       -0.248626      -0.00349779      -0.0120682  
6.87                 -0.00325168      -0.0122619         0.954166       -0.257738         0.954164       -0.257738      -0.00364524      -0.0121547  
6.88                 -0.00340115      -0.0123503         0.951649       -0.266826         0.951647       -0.266825      -0.00379455      -0.0122391  
6.89                 -0.00355251      -0.0124367         0.949046       -0.275889         0.949044       -0.275889       -0.0039457      -0.0123214  
6.9                   -0.0037057      -0.0125209         0.946357       -0.284927         0.946355       -0.284927      -0.00409865      -0.0124016  
6.91                 -0.00386072       -0.012603         0.943581       -0.293939         0.943579       -0.293938      -0.00425338      -0.0124798  
6.92                 -0.00401751       -0.012683          0.94072       -0.302923         0.940718       -0.302923      -0.00440984      -0.0125557  
6.93                 -0.00417605      -0.0127607         0.937773        -0.31188         0.937771        -0.31188      -0.00456802      -0.0126294  
6.94                  -0.0043363      -0.0128363          0.93474       -0.320808         0.934738       -0.320808      -0.00472786      -0.0127009  
6.95                 -0.00449823      -0.0129095         0.931623       -0.329707         0.931621       -0.329706      -0.00488934      -0.0127701  
6.96                  -0.0046618      -0.0129804         0.928421       -0.338576         0.928419       -0.338575      -0.00505242      -0.0128371  