! TOUCHSTONE file generated by CST MICROWAVE STUDIO
! Date and time: Tue Apr 24 13:57:34 2018
! Project name: Test_Line_20170724.cst
! Header version: 2015
! Port assignment regex: !\s*Touchstone port\s*([0-9]+)\s*=\s*CST MWS port\s*([0-9]+)\s*\(\"(.*)\"\)(\s*mode\s*([0-9]+))?.*
! Touchstone port assignment:
! Touchstone port 1 = CST MWS port 1 ("")
! Touchstone port 2 = CST MWS port 2 ("")
# GHZ S DB R 50
5                       -45.9374         175.958         -0.07453         87.0624       -0.0745398         87.0624         -45.9342         178.669  
5.01                    -45.9691         175.411       -0.0745855         86.5163       -0.0745953         86.5163         -45.9658         178.142  
5.02                    -46.0029         174.865       -0.0746467         85.9702       -0.0746565         85.9702         -45.9995         177.616  
5.03                    -46.0387         174.318       -0.0747134         85.4241       -0.0747232         85.4241         -46.0353         177.091  
5.04                    -46.0767         173.772       -0.0747856          84.878       -0.0747954          84.878         -46.0732         176.566  
5.05                    -46.1168         173.225        -0.074863         84.3318       -0.0748729         84.3318         -46.1132         176.042  
5.06                    -46.1591         172.678       -0.0749455         83.7857       -0.0749554         83.7857         -46.1554         175.519  
5.07                    -46.2036         172.132       -0.0750329         83.2395       -0.0750428         83.2395         -46.1997         174.997  
5.08                    -46.2503         171.585       -0.0751251         82.6934       -0.0751351         82.6934         -46.2464         174.476  
5.09                    -46.2993         171.038       -0.0752219         82.1472       -0.0752319         82.1472         -46.2952         173.955  
5.1                     -46.3506         170.491       -0.0753232          81.601       -0.0753333          81.601         -46.3464         173.436  
5.11                    -46.4043         169.944       -0.0754289         81.0548       -0.0754389         81.0548         -46.3999         172.917  
5.12                    -46.4603         169.396       -0.0755387         80.5087       -0.0755488         80.5087         -46.4557         172.399  
5.13                    -46.5187         168.849       -0.0756526         79.9625       -0.0756627         79.9625          -46.514         171.883  
5.14                    -46.5795         168.301       -0.0757703         79.4163       -0.0757805         79.4163         -46.5747         171.367  
5.15                    -46.6429         167.754       -0.0758919         78.8701        -0.075902         78.8701         -46.6379         170.853  
5.16                    -46.7088         167.206        -0.076017         78.3239       -0.0760272         78.3239         -46.7036         170.339  
5.17                    -46.7774         166.658       -0.0761457         77.7776        -0.076156         77.7776          -46.772         169.827  
5.18                    -46.8485          166.11       -0.0762778         77.2314        -0.076288         77.2314         -46.8429         169.316  
5.19                    -46.9224         165.562       -0.0764131         76.6852       -0.0764234         76.6852         -46.9166         168.806  
5.2                     -46.9991         165.014       -0.0765515          76.139       -0.0765618          76.139          -46.993         168.298  
5.21                    -47.0785         164.465       -0.0766929         75.5927       -0.0767033         75.5927         -47.0723         167.791  
5.22                    -47.1609         163.917       -0.0768372         75.0465       -0.0768476         75.0465         -47.1544         167.285  
5.23                    -47.2462         163.368       -0.0769842         74.5003       -0.0769947         74.5003         -47.2395         166.781  
5.24                    -47.3346         162.819       -0.0771339          73.954       -0.0771444          73.954         -47.3276         166.279  
5.25                    -47.4261          162.27       -0.0772861         73.4078       -0.0772966         73.4078         -47.4188         165.778  
5.26                    -47.5208          161.72       -0.0774407         72.8615       -0.0774513         72.8615         -47.5132         165.279  
5.27                    -47.6188         161.171       -0.0775976         72.3153       -0.0776082         72.3153         -47.6108         164.781  
5.28                    -47.7202         160.621       -0.0777568          71.769       -0.0777674          71.769         -47.7119         164.286  
5.29                    -47.8251          160.07        -0.077918         71.2228       -0.0779287         71.2228         -47.8163         163.793  
5.3                     -47.9335          159.52       -0.0780812         70.6765       -0.0780919         70.6765         -47.9244         163.301  
5.31                    -48.0457         158.969       -0.0782463         70.1302        -0.078257         70.1302         -48.0361         162.812  
5.32                    -48.1616         158.418       -0.0784132          69.584        -0.078424          69.584         -48.1517         162.326  
5.33                    -48.2816         157.867       -0.0785817         69.0377       -0.0785926         69.0377         -48.2711         161.842  
5.34                    -48.4055         157.315       -0.0787519         68.4914       -0.0787628         68.4914         -48.3946          161.36  
5.35                    -48.5338         156.763       -0.0789236         67.9451       -0.0789345         67.9451         -48.5223         160.882  
5.36                    -48.6664          156.21       -0.0790967         67.3989       -0.0791076         67.3989         -48.6543         160.406  
5.37                    -48.8035         155.657       -0.0792711         66.8526       -0.0792821         66.8526         -48.7908         159.934  
5.38                    -48.9453         155.103       -0.0794467         66.3063       -0.0794578         66.3063          -48.932         159.464  
5.39                    -49.0921         154.549       -0.0796236           65.76       -0.0796346           65.76          -49.078         158.999  
5.4                     -49.2439         153.995       -0.0798014         65.2137       -0.0798126         65.2137         -49.2291         158.537  
5.41                    -49.4011         153.439       -0.0799803         64.6674       -0.0799915         64.6674         -49.3854          158.08  
5.42                    -49.5638         152.883       -0.0801601         64.1211       -0.0801713         64.1211         -49.5473         157.627  
5.43                    -49.7323         152.327       -0.0803407         63.5748        -0.080352         63.5748         -49.7148         157.179  
5.44                    -49.9068          151.77       -0.0805221         63.0285       -0.0805334         63.0285         -49.8884         156.735  
5.45                    -50.0877         151.211       -0.0807042         62.4822       -0.0807155         62.4822         -50.0682         156.298  
5.46                    -50.2753         150.652       -0.0808869         61.9359       -0.0808983         61.9359         -50.2546         155.866  
5.47                    -50.4699         150.092       -0.0810701         61.3896       -0.0810816         61.3896         -50.4479         155.441  
5.48                    -50.6719         149.531       -0.0812539         60.8433       -0.0812653         60.8433         -50.6484         155.023  
5.49                    -50.8817         148.969        -0.081438          60.297       -0.0814495          60.297         -50.8566         154.612  
5.5                     -51.0997         148.406       -0.0816225         59.7507       -0.0816341         59.7507         -51.0729          154.21  
5.51                    -51.3264         147.841       -0.0818073         59.2044       -0.0818189         59.2044         -51.2977         153.817  
5.52                    -51.5623         147.274       -0.0819923         58.6581        -0.082004         58.6581         -51.5316         153.433  
5.53                    -51.8081         146.706       -0.0821775         58.1118       -0.0821892         58.1118         -51.7751         153.061  
5.54                    -52.0643         146.137       -0.0823628         57.5655       -0.0823745         57.5655         -52.0288         152.701  
5.55                    -52.3317         145.565       -0.0825482         57.0191         -0.08256         57.0191         -52.2935         152.355  
5.56                    -52.6111          144.99       -0.0827335         56.4728       -0.0827454         56.4728         -52.5697         152.023  
5.57                    -52.9034         144.414       -0.0829189         55.9265       -0.0829308         55.9265         -52.8585         151.708  
5.58                    -53.2095         143.834       -0.0831041         55.3802        -0.083116         55.3802         -53.1607         151.412  
5.59                    -53.5304         143.251       -0.0832892         54.8339       -0.0833012         54.8339         -53.4772         151.136  
5.6                     -53.8676         142.665       -0.0834741         54.2875       -0.0834861         54.2875         -53.8093         150.885  
5.61                    -54.2225         142.074       -0.0836588         53.7412       -0.0836709         53.7412         -54.1584          150.66  
5.62                    -54.5967         141.478       -0.0838432         53.1949       -0.0838553         53.1949         -54.5259         150.466  
5.63                    -54.9921         140.877       -0.0840273         52.6485       -0.0840395         52.6485         -54.9136         150.308  
5.64                    -55.4109         140.269        -0.084211         52.1022       -0.0842232         52.1022         -55.3235         150.191  
5.65                    -55.8556         139.654       -0.0843944         51.5559       -0.0844066         51.5559         -55.7577         150.122  
5.66                    -56.3294          139.03       -0.0845773         51.0095       -0.0845896         51.0095         -56.2189         150.109  
5.67                    -56.8357         138.395       -0.0847597         50.4632        -0.084772         50.4632         -56.7103         150.164  
5.68                    -57.3789         137.747       -0.0849416         49.9169        -0.084954         49.9169         -57.2353         150.299  
5.69                    -57.9641         137.084        -0.085123         49.3705       -0.0851354         49.3705         -57.7983         150.531  
5.7                     -58.5979           136.4       -0.0853038         48.8242       -0.0853163         48.8242         -58.4044         150.883  
5.71                    -59.2883         135.692        -0.085484         48.2778       -0.0854966         48.2778         -59.0597         151.385  
5.72                    -60.0455         134.952       -0.0856636         47.7315       -0.0856762         47.7315         -59.7718         152.075  
5.73                    -60.8829         134.169       -0.0858426         47.1851       -0.0858552         47.1851         -60.5495         153.008  
5.74                    -61.8183          133.33       -0.0860208         46.6388       -0.0860335         46.6388         -61.4042         154.263  
5.75                    -62.8762         132.411       -0.0861984         46.0924       -0.0862111         46.0924         -62.3491          155.95  
5.76                    -64.0916         131.374       -0.0863752         45.5461        -0.086388         45.5461         -63.4004         158.237  
5.77                    -65.5172         130.157       -0.0865513         44.9997       -0.0865641         44.9997         -64.5758         161.382  
5.78                    -67.2373         128.636       -0.0867266         44.4534       -0.0867395         44.4534         -65.8911         165.795  
5.79                    -69.3992          126.55       -0.0869011          43.907        -0.086914          43.907         -67.3475         172.133  
5.8                     -72.2956         123.223       -0.0870748         43.3606       -0.0870878         43.3606         -68.8948        -178.585  
5.81                    -76.6374         116.209       -0.0872477         42.8143       -0.0872607         42.8143         -70.3429        -165.076  
5.82                    -84.5275         87.9913       -0.0874197         42.2679       -0.0874328         42.2679          -71.254        -146.895  
5.83                    -83.0982        -12.5973       -0.0875909         41.7215        -0.087604         41.7215          -71.137        -126.679  
5.84                    -75.8074        -34.4555       -0.0877612         41.1752       -0.0877743         41.1752         -70.0442        -109.123  
5.85                    -71.6722        -40.6366       -0.0879306         40.6288       -0.0879438         40.6288         -68.4945        -96.3177  
5.86                    -68.8375        -43.7212       -0.0880992         40.0824       -0.0881124         40.0824         -66.8881        -87.5548  
5.87                    -66.6828        -45.7045       -0.0882668          39.536       -0.0882801          39.536         -65.3861        -81.5591  
5.88                    -64.9441        -47.1734       -0.0884335         38.9897       -0.0884468         38.9897         -64.0269          -77.37  
5.89                    -63.4855        -48.3612       -0.0885993         38.4433       -0.0886126         38.4433         -62.8056        -74.3742  
5.9                     -62.2286        -49.3787       -0.0887641         37.8969       -0.0887775         37.8969         -61.7058        -72.1902  
5.91                    -61.1236        -50.2853        -0.088928         37.3505       -0.0889415         37.3505         -60.7097        -70.5765  
5.92                    -60.1372        -51.1157        -0.089091         36.8041       -0.0891045         36.8041         -59.8018        -69.3758  
5.93                     -59.246        -51.8916        -0.089253         36.2577       -0.0892666         36.2577         -58.9688        -68.4823  
5.94                     -58.433        -52.6269       -0.0894141         35.7113       -0.0894277         35.7113         -58.2002         -67.823  
5.95                    -57.6851        -53.3313       -0.0895742         35.1649       -0.0895878         35.1649         -57.4869        -67.3457  
5.96                    -56.9926        -54.0118       -0.0897334         34.6185       -0.0897471         34.6185         -56.8218        -67.0126  
5.97                    -56.3476        -54.6732       -0.0898916         34.0721       -0.0899053         34.0721         -56.1989        -66.7955  
5.98                    -55.7438        -55.3191       -0.0900488         33.5257       -0.0900626         33.5257         -55.6133         -66.673  
5.99                    -55.1762        -55.9525       -0.0902051         32.9793       -0.0902189         32.9793         -55.0607        -66.6287  
6                       -54.6405        -56.5753       -0.0903604         32.4329       -0.0903743         32.4329         -54.5376        -66.6496  
6.01                    -54.1334        -57.1895       -0.0905148         31.8865       -0.0905287         31.8865         -54.0411        -66.7257  
6.02                    -53.6517        -57.7961       -0.0906683         31.3401       -0.0906822         31.3401         -53.5685        -66.8486  
6.03                    -53.1931        -58.3965       -0.0908208         30.7937       -0.0908348         30.7937         -53.1177        -67.0117  
6.04                    -52.7553        -58.9913       -0.0909723         30.2472       -0.0909864         30.2472         -52.6866        -67.2095  
6.05                    -52.3365        -59.5815       -0.0911229         29.7008        -0.091137         29.7008         -52.2737        -67.4376  
6.06                     -51.935        -60.1675       -0.0912726         29.1544       -0.0912868         29.1544         -51.8775        -67.6921  
6.07                    -51.5495        -60.7499       -0.0914214          28.608       -0.0914356          28.608         -51.4965        -67.9698  
6.08                    -51.1788        -61.3291       -0.0915692         28.0615       -0.0915835         28.0615         -51.1298        -68.2682  
6.09                    -50.8216        -61.9054       -0.0917162         27.5151       -0.0917305         27.5151         -50.7762        -68.5848  
6.1                      -50.477        -62.4793       -0.0918622         26.9687       -0.0918765         26.9687         -50.4349        -68.9178  
6.11                    -50.1442        -63.0509       -0.0920074         26.4222       -0.0920217         26.4222          -50.105        -69.2654  
6.12                    -49.8223        -63.6204       -0.0921516         25.8758       -0.0921661         25.8758         -49.7857        -69.6262  
6.13                    -49.5107        -64.1881        -0.092295         25.3293       -0.0923095         25.3293         -49.4765        -69.9989  
6.14                    -49.2087        -64.7542       -0.0924376         24.7829       -0.0924521         24.7829         -49.1766        -70.3824  
6.15                    -48.9157        -65.3188       -0.0925793         24.2364       -0.0925939         24.2364         -48.8855        -70.7756  
6.16                    -48.6312         -65.882       -0.0927202           23.69       -0.0927348           23.69         -48.6028        -71.1778  
6.17                    -48.3547         -66.444       -0.0928602         23.1435       -0.0928749         23.1435         -48.3279        -71.5882  
6.18                    -48.0858        -67.0048       -0.0929995         22.5971       -0.0930142         22.5971         -48.0605         -72.006  
6.19                     -47.824        -67.5646       -0.0931379         22.0506       -0.0931527         22.0506         -47.8001        -72.4307  
6.2                     -47.5691        -68.1234       -0.0932756         21.5041       -0.0932904         21.5041         -47.5465        -72.8618  
6.21                    -47.3205        -68.6814       -0.0934125         20.9576       -0.0934274         20.9577         -47.2991        -73.2987  
6.22                    -47.0782        -69.2385       -0.0935487         20.4112       -0.0935636         20.4112         -47.0578         -73.741  
6.23                    -46.8417        -69.7949       -0.0936841         19.8647        -0.093699         19.8647         -46.8223        -74.1883  
6.24                    -46.6107        -70.3506       -0.0938188         19.3182       -0.0938338         19.3182         -46.5923        -74.6402  
6.25                    -46.3851        -70.9056       -0.0939528         18.7717       -0.0939678         18.7717         -46.3675        -75.0965  
6.26                    -46.1645        -71.4601       -0.0940861         18.2252       -0.0941012         18.2253         -46.1478        -75.5568  
6.27                    -45.9489         -72.014       -0.0942187         17.6788       -0.0942338         17.6788         -45.9329        -76.0208  
6.28                    -45.7378        -72.5673       -0.0943507         17.1323       -0.0943659         17.1323         -45.7226        -76.4884  
6.29                    -45.5313        -73.1202        -0.094482         16.5858       -0.0944973         16.5858         -45.5167        -76.9593  
6.3                     -45.3291        -73.6726       -0.0946127         16.0393        -0.094628         16.0393         -45.3151        -77.4332  
6.31                     -45.131        -74.2246       -0.0947429         15.4928       -0.0947582         15.4928         -45.1176          -77.91  
6.32                    -44.9368        -74.7762       -0.0948724         14.9463       -0.0948878         14.9463          -44.924        -78.3896  
6.33                    -44.7465        -75.3275       -0.0950014         14.3998       -0.0950168         14.3998         -44.7342        -78.8717  
6.34                    -44.5599        -75.8783       -0.0951298         13.8532       -0.0951453         13.8532         -44.5481        -79.3563  
6.35                    -44.3768        -76.4289       -0.0952577         13.3067       -0.0952732         13.3067         -44.3654        -79.8431  
6.36                    -44.1971        -76.9791       -0.0953851         12.7602       -0.0954007         12.7602         -44.1862        -80.3321  
6.37                    -44.0208        -77.5291        -0.095512         12.2137       -0.0955276         12.2137         -44.0103        -80.8231  
6.38                    -43.8476        -78.0788       -0.0956384         11.6672       -0.0956541         11.6672         -43.8375        -81.3161  
6.39                    -43.6776        -78.6282       -0.0957644         11.1206       -0.0957801         11.1206         -43.6678        -81.8108  
6.4                     -43.5105        -79.1774       -0.0958899         10.5741       -0.0959057         10.5741         -43.5011        -82.3073  
6.41                    -43.3464        -79.7263       -0.0960151         10.0276       -0.0960309         10.0276         -43.3373        -82.8055  
6.42                     -43.185         -80.275       -0.0961398         9.48105       -0.0961557         9.48105         -43.1763        -83.3052  
6.43                    -43.0264        -80.8235       -0.0962642         8.93451       -0.0962801         8.93451          -43.018        -83.8064  
6.44                    -42.8705        -81.3719       -0.0963882         8.38797       -0.0964042         8.38797         -42.8623         -84.309  
6.45                    -42.7171          -81.92       -0.0965119         7.84142       -0.0965279         7.84142         -42.7092         -84.813  
6.46                    -42.5662         -82.468       -0.0966353         7.29487       -0.0966513         7.29488         -42.5585        -85.3182  
6.47                    -42.4177        -83.0158       -0.0967584         6.74832       -0.0967745         6.74832         -42.4103        -85.8247  
6.48                    -42.2716        -83.5634       -0.0968812         6.20177       -0.0968974         6.20177         -42.2644        -86.3324  
6.49                    -42.1277        -84.1109       -0.0970038         5.65521         -0.09702         5.65521         -42.1208        -86.8412  
6.5                     -41.9862        -84.6582       -0.0971261         5.10865       -0.0971424         5.10865         -41.9795         -87.351  
6.51                    -41.8468        -85.2055       -0.0972482         4.56209       -0.0972645         4.56209         -41.8403        -87.8619  
6.52                    -41.7095        -85.7526       -0.0973702         4.01552       -0.0973865         4.01552         -41.7032        -88.3738  
6.53                    -41.5742        -86.2995        -0.097492         3.46895       -0.0975084         3.46895         -41.5681        -88.8866  
6.54                     -41.441        -86.8464       -0.0976136         2.92238         -0.09763         2.92238         -41.4351        -89.4003  
6.55                    -41.3098        -87.3931       -0.0977351         2.37581       -0.0977516         2.37581         -41.3041        -89.9149  
6.56                    -41.1805        -87.9397       -0.0978565         1.82923        -0.097873         1.82923         -41.1749        -90.4303  
6.57                     -41.053        -88.4863       -0.0979778         1.28265       -0.0979944         1.28265         -41.0476        -90.9465  
6.58                    -40.9274        -89.0327        -0.098099        0.736066       -0.0981157        0.736067         -40.9222        -91.4635  
6.59                    -40.8036        -89.5791       -0.0982202        0.189481       -0.0982369        0.189481         -40.7985        -91.9812  
6.6                     -40.6815        -90.1253       -0.0983414       -0.357108       -0.0983581       -0.357107         -40.6765        -92.4996  
6.61                    -40.5611        -90.6715       -0.0984625       -0.903699       -0.0984793       -0.903699         -40.5563        -93.0188  
6.62                    -40.4425        -91.2176       -0.0985837        -1.45029       -0.0986006        -1.45029         -40.4377        -93.5385  
6.63                    -40.3254        -91.7636       -0.0987049        -1.99689       -0.0987218        -1.99689         -40.3208         -94.059  
6.64                    -40.2099        -92.3096       -0.0988262        -2.54349       -0.0988431        -2.54349         -40.2055          -94.58  
6.65                    -40.0961        -92.8554       -0.0989475        -3.09009       -0.0989645        -3.09009         -40.0917        -95.1016  
6.66                    -39.9837        -93.4012       -0.0990689         -3.6367        -0.099086         -3.6367         -39.9795        -95.6238  
6.67                    -39.8729         -93.947       -0.0991904         -4.1833       -0.0992075         -4.1833         -39.8688        -96.1466  
6.68                    -39.7635        -94.4927       -0.0993121        -4.72991       -0.0993292        -4.72991         -39.7595        -96.6699  
6.69                    -39.6556        -95.0383       -0.0994339        -5.27652       -0.0994511        -5.27652         -39.6517        -97.1937  
6.7                     -39.5491        -95.5839       -0.0995558        -5.82314       -0.0995731        -5.82314         -39.5453         -97.718  
6.71                     -39.444        -96.1294        -0.099678        -6.36976       -0.0996953        -6.36976         -39.4403        -98.2428  
6.72                    -39.3403        -96.6749       -0.0998003        -6.91637       -0.0998177        -6.91638         -39.3367         -98.768  
6.73                     -39.238        -97.2203       -0.0999229          -7.463       -0.0999403          -7.463         -39.2344        -99.2937  
6.74                    -39.1369        -97.7657        -0.100046        -8.00962        -0.100063        -8.00962         -39.1334        -99.8199  
6.75                    -39.0371         -98.311        -0.100169        -8.55625        -0.100186        -8.55625         -39.0338        -100.346  
6.76                    -38.9387        -98.8563        -0.100292        -9.10288         -0.10031        -9.10288         -38.9354        -100.873  
6.77                    -38.8414        -99.4016        -0.100416        -9.64951        -0.100433        -9.64951         -38.8382        -101.401  
6.78                    -38.7454        -99.9468         -0.10054        -10.1961        -0.100557        -10.1961         -38.7423        -101.929  
6.79                    -38.6506        -100.492        -0.100664        -10.7428        -0.100682        -10.7428         -38.6476        -102.457  
6.8                      -38.557        -101.037        -0.100789        -11.2894        -0.100806        -11.2894          -38.554        -102.985  
6.81                    -38.4646        -101.582        -0.100914         -11.836        -0.100931        -11.8361         -38.4617        -103.514  
6.82                    -38.3733        -102.127        -0.101039        -12.3827        -0.101057        -12.3827         -38.3705        -104.043  
6.83                    -38.2832        -102.672        -0.101165        -12.9293        -0.101182        -12.9293         -38.2804        -104.573  
6.84                    -38.1942        -103.217        -0.101291         -13.476        -0.101309         -13.476         -38.1915        -105.103  
6.85                    -38.1063        -103.762        -0.101417        -14.0226        -0.101435        -14.0226         -38.1036        -105.633  
6.86                    -38.0194        -104.307        -0.101544        -14.5693        -0.101562        -14.5693         -38.0168        -106.163  
6.87                    -37.9337        -104.852        -0.101672        -15.1159         -0.10169        -15.1159         -37.9311        -106.694  
6.88                     -37.849        -105.397        -0.101799        -15.6626        -0.101818        -15.6626         -37.8464        -107.225  
6.89                    -37.7653        -105.942        -0.101928        -16.2092        -0.101946        -16.2092         -37.7628        -107.757  
6.9                     -37.6826        -106.487        -0.102057        -16.7559        -0.102075        -16.7559         -37.6802        -108.288  
6.91                     -37.601        -107.032        -0.102186        -17.3025        -0.102204        -17.3025         -37.5986         -108.82  
6.92                    -37.5203        -107.576        -0.102316        -17.8492        -0.102334        -17.8492          -37.518        -109.352  
6.93                    -37.4406        -108.121        -0.102446        -18.3959        -0.102465        -18.3959         -37.4384        -109.885  
6.94                    -37.3619        -108.666        -0.102577        -18.9425        -0.102596        -18.9425         -37.3597        -110.418  
6.95                    -37.2842        -109.211        -0.102709        -19.4892        -0.102727        -19.4892          -37.282         -110.95  
6.96                    -37.2073        -109.755        -0.102841        -20.0359        -0.102859        -20.0359         -37.2052        -111.484  